;
;	File 'data/processed/topol.top' was generated
;	By user: luiscamara (501)
;	On host: c65a127f-a80e-49cc-be45-b6a8eeb1cd4d.home
;	At date: Sat Sep  5 09:59:31 2026
;
;	This is a standalone topology file
;
;	Created by:
;	              :-) GROMACS - gmx pdb2gmx, 2024.4-conda_forge (-:
;	
;	Executable:   /Users/luiscamara/miniforge3/envs/abmd/bin.ARM_NEON_ASIMD/gmx
;	Data prefix:  /Users/luiscamara/miniforge3/envs/abmd
;	Working dir:  /Users/luiscamara/PyCharm/abmd
;	Command line:
;	  gmx pdb2gmx -f data/processed/1N8Z_fab_repaired.pdb -o data/processed/1N8Z_fab_processed.gro -p data/processed/topol.top -i data/processed/posre.itp -ter -his
;	Force field was read from the standard GROMACS share directory.
;

; Include forcefield parameters
#include "charmm36-feb2026_cgenff-5.0.ff/forcefield.itp"

; Include chain topologies
#include "topol_Protein_chain_A.itp"
#include "topol_Protein_chain_B.itp"

; Include water topology
#include "charmm36-feb2026_cgenff-5.0.ff/tip3p.itp"

#ifdef POSRES_WATER
; Position restraint for each water oxygen
[ position_restraints ]
;  i funct       fcx        fcy        fcz
   1    1       1000       1000       1000
#endif

; Include topology for ions
#include "charmm36-feb2026_cgenff-5.0.ff/ions.itp"

[ system ]
; Name
Protein in water

[ molecules ]
; Compound        #mols
Protein_chain_A     1
Protein_chain_B     1
SOL         24631
NA               74
CL               79
